# vtk DataFile Version 3.0
Tensor example
ASCII
DATASET STRUCTURED_POINTS
DIMENSIONS 3 3 3
ORIGIN -1 -1 -1
SPACING 1 1 1
POINT_DATA 27
TENSORS tensor float
 1 0 0  0 2 0  0 0 3
 1 0 0  0 2 0  0 0 3
 1 0 0  0 2 0  0 0 3
 1 0 0  0 2 0  0 0 3
 1 0 0  0 2 0  0 0 3
 1 0 0  0 2 0  0 0 3
 1 0 0  0 2 0  0 0 3
 1 0 0  0 2 0  0 0 3
 1 0 0  0 2 0  0 0 3
 1 0 0  0 2 0  0 0 3
 1 0 0  0 2 0  0 0 3
 1 0 0  0 2 0  0 0 3
 1 0 0  0 2 0  0 0 3
 1 0 0  0 2 0  0 0 3
 1 0 0  0 2 0  0 0 3
 1 0 0  0 2 0  0 0 3
 1 0 0  0 2 0  0 0 3
 1 0 0  0 2 0  0 0 3
 1 0 0  0 2 0  0 0 3
 1 0 0  0 2 0  0 0 3
 1 0 0  0 2 0  0 0 3
 1 0 0  0 2 0  0 0 3
 1 0 0  0 2 0  0 0 3
 1 0 0  0 2 0  0 0 3
 1 0 0  0 2 0  0 0 3
 1 0 0  0 2 0  0 0 3
 1 0 0  0 2 0  0 0 3